% Model:              countersunk_magnets.mph
% Version:            COMSOL 6.3.0.420
% Date:               Jun 10 2026, 14:21
% Dimension:          3
% Nodes:              98
% Expressions:        4
% Description:        Magnetic flux density, x-component, Magnetic flux density, y-component, Magnetic flux density, z-component, Magnetic flux density norm
% Length unit:        mm
% x                       y                        z                        mfnc.Bx (T) @ ramp=1     mfnc.By (T) @ ramp=1     mfnc.Bz (T) @ ramp=1     mfnc.normB (T) @ ramp=1
15                        -25.4                    0                        -0.014631280984681987    -0.12115372668596287     0.4292808793874542       0.5704652147338849
15                        -23.068147345102616      0                        -0.014889621742026191    0.00666017311740735      0.7354542176988561       0.797029404676792
15                        -20.889568985071364      0                        0.012786862118209435     0.04035570239989715      1.0215025697947118       1.0372452416216873
15                        -25.716660801863384      0                        0.04323842403828268      -0.07817068507886152     0.2967145101551283       0.46440984755500603
15                        -31.504454326948512      0                        -0.04129679317461081     0.018987375719724787     0.001666820404759099     0.2625204395245958
15                        -30.986963231660596      0                        -0.07470442496179844     0.03812064699342005      0.029436215564228815     0.2742047303599101
15                        -73.70408126925933       0                        -7.506304095287646E-6    -3.65057049841749E-4     -0.03299171606417764     0.033088919097071845
15                        -68.6357137346448        0                        -3.587718868585247E-4    1.2615704426693745E-4    -0.03899724047570826     0.03912372483537173
15                        -68.56874817925458       0                        -3.61017625745331E-5     3.162861881073368E-5     -0.039185631086758016    0.039304414929634816
15                        -65.53470469042531       0                        -1.8589300251253213E-5   1.2686109815509243E-4    -0.042893888404826       0.04290870563420801
15                        -64.20635189923237       0                        -3.498893541251999E-5    4.1339174802465387E-4    -0.0442590822365973      0.04430866847185132
15                        -80                      0                        6.812136509316128E-5     3.7165897395754536E-5    -0.02800445034556282     0.02808711253319454
15                        -76.68362905848798       0                        1.315640941814375E-4     3.27045394632304E-5      -0.030443990564693005    0.030522798613805007
15                        -74.93339589874618       0                        6.533627423058404E-5     -1.93454262590304E-4     -0.03178005396737585     0.0318715176899524
15                        -5.902926362878205       0                        8.63818461165111E-4      -7.852865426281221E-4    1.006048828915842        1.006231949609645
15                        -4.2785530742720965      0                        0.0021731851239840576    4.970731270682947E-4     1.0054732617930102       1.005667001561835
15                        -6.180240717150866       0                        -0.006461400218755976    7.007744645302868E-4     1.006107523742417        1.0065918402345093
15                        -1.0138170887560705      0                        0.004049041821715453     -0.0012079945769733124   1.006848275751456        1.0070789982159631
15                        -0.9362540817269576      0                        0.005194064071378781     -0.001429315072146187    1.0075093467340595       1.0077859538316392
15                        -0.7020328751078182      0                        0.00700350062913979      5.722085443330847E-5     1.0077770679051095       1.0081321832295407
15                        -20.693114224672122      0                        0.022943716006721418     0.02445755677058177      0.9921554647155267       1.00510964545427
15                        -7.270440198098413       0                        -0.009399580520389543    -0.007843601755618584    1.0074339681390825       1.0083250929201921
15                        -20.122691731198117      0                        -0.006823408012743171    -0.03421285778319251     0.9635888181116131       0.9648685907330968
15                        -20.06198972747471       0                        -0.007714601313718886    -0.00894085608998844     0.9567036688659489       0.9570087614134061
15                        -7.562949843216487       0                        -0.0022874519042953402   -0.012075055713727561    1.0087965754406694       1.0093599674876181
15                        -9.673569031244014       0                        0.004218930813794283     -1.1969920713664846E-4   1.001782375588594        1.0021512141807047
15                        -7.948330574599197       0                        0.003528306900522915     -0.002285085742259342    1.0044701521494463       1.0048373428062187
15                        -18.64918723990131       0                        -0.006494092931822199    -0.008783403397684443    0.9663214354180218       0.9665661028140353
15                        -14.361277462351737      0                        -0.010929514338831006    0.0034313134577325516    0.9950552601634615       0.9955628763935245
15                        -19.429463221881875      0                        -0.0050032210463345946   -0.010991234032207309    0.9613254272098917       0.9615274539275875
15                        -13.180488583865682      0                        -0.007152932103683499    0.004619744568815135     0.9969779475093846       0.9974697228191028
15                        -12.94079172479222       0                        -0.0028271856141169173   0.0023722913132979088    0.9926792372981629       0.9931765959149497
15                        -10.753979313338263      0                        0.0030168505170618436    0.002497158362607564     1.000607460976469        1.0010164968773063
15                        -35.28154142635668       0                        -0.008062809079306597    -0.007610011804935011    -0.08236917232076399     0.08442400404006015
15                        -35.20273828302926       0                        -0.009095913812842624    -0.01373096811930399     -0.08321940010930595     0.08670287525063447
15                        -34.248750278938054      0                        0.007820830353122853     -0.04602622672432736     -0.09372219335832999     0.1087008551142194
15                        -34.153464976619574      0                        0.02053467302586547      -0.06900234378872129     -0.10665769088214584     0.13686722765852527
15                        -33.31699786036108       0                        0.010584359463640183     -0.03361846821653737     -0.08842805642291923     0.17253148805460844
15                        -57.43286722770563       0                        -5.6175285342906635E-5   -8.076824728916175E-5    -0.05501454010951684     0.055626476036765175
15                        -55.67526404375313       0                        -1.728006329889958E-4    -1.4279884682110475E-4   -0.058172196946021104    0.059025086687199246
15                        -62.41212169523247       0                        -7.534433162786566E-5    -3.270770861551921E-4    -0.04623397012792748     0.04652184850047037
15                        -63.96957159325791       0                        -2.3264586065783444E-4   -1.2461175017132567E-4   -0.04403359838630172     0.04409312269382762
15                        -47.245889536780545      0                        -8.148258359686177E-5    2.0317012500366684E-5    -0.07526214790505541     0.07577963506506305
15                        -45.96028955202526       0                        1.432937442427926E-4     6.559743310115085E-4     -0.07681247858316695     0.07714175578096882
15                        -47.57772763270025       0                        -1.6310692221684878E-4   6.57030519344078E-5      -0.07459262501698859     0.07510719483867678
15                        -38.24890621901681       0                        -0.0027422563659737086   0.0011591117816751304    -0.08225154988080396     0.08251111529034523
15                        -38.07550711858033       0                        -0.006592732942808355    -5.581742554305511E-4    -0.08099532507123869     0.08145850431707209
15                        -42.52266310394606       0                        2.920257964779478E-5     0.0011401186203076762    -0.08516652345029506     0.08522773374772571
15                        -74.72980517170666       0                        -2.2847574754778076E-5   -4.361855966819555E-4    -0.03199450342499274     0.03209852875674482
15                        -43.75891317358597       0                        -1.3081819167726346E-4   -0.0014538056719881182   -0.08059165779277982     0.08098489152695358
15                        2.807393210707829        0                        0.0047055965441681735    0.0021257294212392577    1.0060394858168857       1.0066640876143595
15                        2.854860855977563        0                        0.005388623079282477     8.976136665579136E-4     1.0049421414551942       1.0055856694608913
15                        5.0329105950523285       0                        7.463601823348666E-4     -0.006389572277195833    1.0061775994849667       1.0068411055234192
15                        6.18174355433689         0                        6.724154582436991E-4     -0.004981730081611127    1.0045824559114473       1.005382021548974
15                        8.569655577992023        0                        0.0021048650853079057    0.006722841134977182     1.0065744425621406       1.0073086200188437
15                        9.477946397138922        0                        0.004328326718689091     0.00612264108375391      1.006555203369203        1.0072119341235546
15                        11.886744921500167       0                        -0.002139980966980046    9.265281045588553E-4     0.9981904596584945       0.9984065476762867
15                        12.2173664397545         0                        -0.0023396989241675327   -0.0010889662411552876   0.9976879566495945       0.9979143038293006
15                        11.144816555701752       0                        0.0032012959893745726    -4.689198006594829E-4    0.9995688589782987       0.9999589009796617
15                        16.08519955494502        0                        -9.712090219608088E-4    0.001722195261583895     0.9785424814897994       0.9788453625630904
15                        17.222816096726092       0                        0.005749416394389366     -0.004587820577350579    0.9681780392662831       0.9687383913352441
15                        18.99034092282136        0                        0.020426907491107933     -0.0018795768921659947   0.9578450299606891       0.9594115212003407
15                        16.609634759712364       0                        -0.0010863339664410557   -0.003714501568045158    0.9713562240209674       0.971604586873317
15                        19.411502485777817       0                        0.011547133578713611     0.05515887776674979      0.9522752679290596       0.9602724365740375
15                        24.140576596181788       0                        -0.09759219353455528     -0.02633990913014461     0.7187853188405648       0.7978584927503942
15                        24.601887040287323       0                        -0.067238644648297       0.005547456231065636     0.615638271729438        0.6989561135481057
15                        20.125077307056344       0                        0.06220527473236208      0.0201909088379463       0.9212659033802814       0.9533009556906121
15                        25.39999999999999        0                        -0.008537468315713016    0.08719134708380658      0.4317787286500573       0.5181586793742134
15                        26.19408652036782        0                        -0.007315906052039108    0.05236892167983837      0.3523721744994266       0.4779021868795655
15                        27.153941546770028       0                        -0.00563773366454961     0.016329423780807283     0.26038707225586794      0.44979955839048813
15                        29.66976540967231        0                        -0.00965276795293523     -0.08168384175291984     0.016645618251994603     0.3394027675487945
15                        31.152970756124816       0                        -6.582757611078289E-4    -0.008874132870225749    -0.02569637203181183     0.2098586990946239
15                        32.78588116545647        0                        0.00980506714700656      0.06978389404148944      -0.04849300712180765     0.14488439383976334
15                        33.12057026761775        0                        0.006843409785077411     0.039461316774116496     -0.06624830698946443     0.10777317213062444
15                        36.72030088065915        0                        0.003265319982993989     -0.003859618047852468    -0.08423158544242282     0.08451713026432203
15                        36.79015878667279        0                        0.0032673646945145774    -0.0064503626709699015   -0.0810418401151734      0.0815160787918823
15                        36.83009330607996        0                        0.006912204994794625     -0.004844656746883796    -0.08148382778344021     0.082158074744198
15                        36.59465595955882        0                        0.0010997973227843464    -6.951052104209771E-4    -0.08940163720563771     0.08949791020719311
15                        38.11050199582782        0                        0.0057322995848322535    -0.0013010585910167105   -0.08479303726003035     0.08537288624383166
15                        45.473640433125496       0                        -0.001121990902407439    -1.943328929553082E-4    -0.07793771919749952     0.07799138317120713
15                        48.274219524440184       0                        -7.816680732540628E-4    -2.163755681118949E-4    -0.07354217946139553     0.07358363501848593
15                        42.833805954091346       0                        8.6341444957584E-5       3.5380708017437336E-4    -0.08078438483644915     0.0808814296538446
15                        39.886142647511235       0                        0.002425467807733391     0.0012149000276988067    -0.08330294608905207     0.08346772059282043
15                        72.80952602516572        0                        4.069326719162798E-5     2.2076103884131665E-4    -0.03392942675699143     0.03418635869984825
15                        73.79742082220326        0                        7.431909753957191E-5     3.586668173604839E-4     -0.03289961161374581     0.03312816430099354
15                        72.80245455221487        0                        7.617260286570964E-5     2.0047906173947764E-4    -0.033900493793105224    0.034169598366573364
15                        48.50274903630722        0                        -3.3766277201866706E-4   1.9635774082151153E-4    -0.073002540541027       0.07302189352522981
15                        49.080263195039066       0                        -4.786624892942008E-4    7.420418443231858E-4     -0.07176229205191169     0.07184274155142825
15                        64.29213248635074        0                        -2.812252147023699E-4    3.804730381388316E-4     -0.04385126891132403     0.044321413739665
15                        64.31781492973852        0                        -2.48938796453621E-4     2.9145002784851555E-4    -0.04389043953877535     0.044350054367552336
15                        66.36809345219245        0                        8.783413475354541E-5     -2.4541861275458174E-5   -0.04115072992449342     0.041480674925405046
15                        52.63148301219951        0                        7.867005968870797E-4     -1.9881328728688362E-4   -0.06439648602109545     0.06453742300190413
15                        63.99502931935666        0                        -2.936144335232471E-4    4.4487833674838363E-4    -0.04429561803783755     0.04476634852787558
15                        50.106020243029576       0                        4.8297392472293574E-4    -2.214045018218133E-5    -0.06888671413354613     0.06906184654388864
15                        49.50160897117004        0                        -4.250098836204448E-4    7.140065430543259E-4     -0.07042221428879661     0.0704695164366726
15                        68.94266880833334        0                        2.9605979965547215E-4    -6.327945940625469E-4    -0.03786746382240448     0.0381401119377696
15                        77.58847340953426        0                        1.140877614027673E-4     1.0316742456268729E-4    -0.02962898133748562     0.029824097059519994
15                        80                       0                        8.634291539583801E-5     7.562849043316153E-5     -0.02776207972275572     0.027877754490136953
